LAMMPS data file Created by LigParGen - (Written by Leela S. Dodda)

      50 atoms
      49 bonds
      96 angles
     135 dihedrals
      32 impropers
 
      50 atom types
      49 bond types
      96 angle types
     135 dihedral types
      32 improper types
 
  -15.401370    34.598630 xlo xhi
    0.095370    50.095370 ylo yhi
   -1.026330    48.973670 zlo zhi

Masses

       1     12.011  
       2     12.011  
       3     12.011  
       4     12.011  
       5     12.011  
       6     12.011  
       7     12.011  
       8     12.011  
       9     12.011  
      10     12.011  
      11     12.011  
      12     12.011  
      13     12.011  
      14     12.011  
      15     12.011  
      16     12.011  
      17      1.008  
      18      1.008  
      19      1.008  
      20      1.008  
      21      1.008  
      22      1.008  
      23      1.008  
      24      1.008  
      25      1.008  
      26      1.008  
      27      1.008  
      28      1.008  
      29      1.008  
      30      1.008  
      31      1.008  
      32      1.008  
      33      1.008  
      34      1.008  
      35      1.008  
      36      1.008  
      37      1.008  
      38      1.008  
      39      1.008  
      40      1.008  
      41      1.008  
      42      1.008  
      43      1.008  
      44      1.008  
      45      1.008  
      46      1.008  
      47      1.008  
      48      1.008  
      49      1.008  
      50      1.008  

Pair Coeffs 

       1      0.066  3.5000000 
       2      0.066  3.5000000 
       3      0.066  3.5000000 
       4      0.066  3.5000000 
       5      0.066  3.5000000 
       6      0.066  3.5000000 
       7      0.066  3.5000000 
       8      0.066  3.5000000 
       9      0.066  3.5000000 
      10      0.066  3.5000000 
      11      0.066  3.5000000 
      12      0.066  3.5000000 
      13      0.066  3.5000000 
      14      0.066  3.5000000 
      15      0.066  3.5000000 
      16      0.066  3.5000000 
      17      0.030  2.5000000 
      18      0.030  2.5000000 
      19      0.030  2.5000000 
      20      0.030  2.5000000 
      21      0.030  2.5000000 
      22      0.030  2.5000000 
      23      0.030  2.5000000 
      24      0.030  2.5000000 
      25      0.030  2.5000000 
      26      0.030  2.5000000 
      27      0.030  2.5000000 
      28      0.030  2.5000000 
      29      0.030  2.5000000 
      30      0.030  2.5000000 
      31      0.030  2.5000000 
      32      0.030  2.5000000 
      33      0.030  2.5000000 
      34      0.030  2.5000000 
      35      0.030  2.5000000 
      36      0.030  2.5000000 
      37      0.030  2.5000000 
      38      0.030  2.5000000 
      39      0.030  2.5000000 
      40      0.030  2.5000000 
      41      0.030  2.5000000 
      42      0.030  2.5000000 
      43      0.030  2.5000000 
      44      0.030  2.5000000 
      45      0.030  2.5000000 
      46      0.030  2.5000000 
      47      0.030  2.5000000 
      48      0.030  2.5000000 
      49      0.030  2.5000000 
      50      0.030  2.5000000 

Bond Coeffs 

       1   268.0000     1.5290 
       2   268.0000     1.5290 
       3   268.0000     1.5290 
       4   268.0000     1.5290 
       5   268.0000     1.5290 
       6   268.0000     1.5290 
       7   268.0000     1.5290 
       8   268.0000     1.5290 
       9   268.0000     1.5290 
      10   268.0000     1.5290 
      11   268.0000     1.5290 
      12   268.0000     1.5290 
      13   268.0000     1.5290 
      14   268.0000     1.5290 
      15   268.0000     1.5290 
      16   340.0000     1.0900 
      17   340.0000     1.0900 
      18   340.0000     1.0900 
      19   340.0000     1.0900 
      20   340.0000     1.0900 
      21   340.0000     1.0900 
      22   340.0000     1.0900 
      23   340.0000     1.0900 
      24   340.0000     1.0900 
      25   340.0000     1.0900 
      26   340.0000     1.0900 
      27   340.0000     1.0900 
      28   340.0000     1.0900 
      29   340.0000     1.0900 
      30   340.0000     1.0900 
      31   340.0000     1.0900 
      32   340.0000     1.0900 
      33   340.0000     1.0900 
      34   340.0000     1.0900 
      35   340.0000     1.0900 
      36   340.0000     1.0900 
      37   340.0000     1.0900 
      38   340.0000     1.0900 
      39   340.0000     1.0900 
      40   340.0000     1.0900 
      41   340.0000     1.0900 
      42   340.0000     1.0900 
      43   340.0000     1.0900 
      44   340.0000     1.0900 
      45   340.0000     1.0900 
      46   340.0000     1.0900 
      47   340.0000     1.0900 
      48   340.0000     1.0900 
      49   340.0000     1.0900 

Angle Coeffs 

       1     58.350    112.700
       2     58.350    112.700
       3     58.350    112.700
       4     58.350    112.700
       5     58.350    112.700
       6     58.350    112.700
       7     58.350    112.700
       8     58.350    112.700
       9     58.350    112.700
      10     58.350    112.700
      11     58.350    112.700
      12     58.350    112.700
      13     58.350    112.700
      14     58.350    112.700
      15     37.500    110.700
      16     37.500    110.700
      17     37.500    110.700
      18     37.500    110.700
      19     37.500    110.700
      20     37.500    110.700
      21     37.500    110.700
      22     37.500    110.700
      23     37.500    110.700
      24     37.500    110.700
      25     37.500    110.700
      26     37.500    110.700
      27     37.500    110.700
      28     37.500    110.700
      29     37.500    110.700
      30     37.500    110.700
      31     37.500    110.700
      32     37.500    110.700
      33     37.500    110.700
      34     37.500    110.700
      35     37.500    110.700
      36     37.500    110.700
      37     37.500    110.700
      38     37.500    110.700
      39     37.500    110.700
      40     37.500    110.700
      41     37.500    110.700
      42     37.500    110.700
      43     37.500    110.700
      44     37.500    110.700
      45     37.500    110.700
      46     37.500    110.700
      47     37.500    110.700
      48     37.500    110.700
      49     33.000    107.800
      50     33.000    107.800
      51     33.000    107.800
      52     37.500    110.700
      53     37.500    110.700
      54     37.500    110.700
      55     33.000    107.800
      56     37.500    110.700
      57     37.500    110.700
      58     37.500    110.700
      59     33.000    107.800
      60     33.000    107.800
      61     37.500    110.700
      62     33.000    107.800
      63     37.500    110.700
      64     37.500    110.700
      65     33.000    107.800
      66     37.500    110.700
      67     37.500    110.700
      68     37.500    110.700
      69     33.000    107.800
      70     33.000    107.800
      71     37.500    110.700
      72     37.500    110.700
      73     33.000    107.800
      74     33.000    107.800
      75     37.500    110.700
      76     37.500    110.700
      77     37.500    110.700
      78     37.500    110.700
      79     37.500    110.700
      80     33.000    107.800
      81     33.000    107.800
      82     37.500    110.700
      83     37.500    110.700
      84     37.500    110.700
      85     33.000    107.800
      86     33.000    107.800
      87     37.500    110.700
      88     37.500    110.700
      89     37.500    110.700
      90     37.500    110.700
      91     33.000    107.800
      92     37.500    110.700
      93     33.000    107.800
      94     33.000    107.800
      95     37.500    110.700
      96     33.000    107.800

Dihedral Coeffs  

       1      1.300     -0.200      0.200      0.000 
       2      1.300     -0.200      0.200      0.000 
       3      1.300     -0.200      0.200      0.000 
       4      1.300     -0.200      0.200      0.000 
       5      1.300     -0.200      0.200      0.000 
       6      1.300     -0.200      0.200      0.000 
       7      1.300     -0.200      0.200      0.000 
       8      1.300     -0.200      0.200      0.000 
       9      1.300     -0.200      0.200      0.000 
      10      1.300     -0.200      0.200      0.000 
      11      1.300     -0.200      0.200      0.000 
      12      1.300     -0.200      0.200      0.000 
      13      1.300     -0.200      0.200      0.000 
      14      0.000      0.000      0.300      0.000 
      15      0.000      0.000      0.300      0.000 
      16      0.000      0.000      0.300      0.000 
      17      0.000      0.000      0.300      0.000 
      18      0.000      0.000      0.300      0.000 
      19      0.000      0.000      0.300      0.000 
      20      0.000      0.000      0.300      0.000 
      21      0.000      0.000      0.300      0.000 
      22      0.000      0.000      0.300      0.000 
      23      0.000      0.000      0.300      0.000 
      24      0.000      0.000      0.300      0.000 
      25      0.000      0.000      0.300      0.000 
      26      0.000      0.000      0.300      0.000 
      27      0.000      0.000      0.300      0.000 
      28      0.000      0.000      0.300      0.000 
      29      0.000      0.000      0.300      0.000 
      30      0.000      0.000      0.300      0.000 
      31      0.000      0.000      0.300      0.000 
      32      0.000      0.000      0.300      0.000 
      33      0.000      0.000      0.300      0.000 
      34      0.000      0.000      0.300      0.000 
      35      0.000      0.000      0.300      0.000 
      36      0.000      0.000      0.300      0.000 
      37      0.000      0.000      0.300      0.000 
      38      0.000      0.000      0.300      0.000 
      39      0.000      0.000      0.300      0.000 
      40      0.000      0.000      0.300      0.000 
      41      0.000      0.000      0.300      0.000 
      42      0.000      0.000      0.300      0.000 
      43      0.000      0.000      0.300      0.000 
      44      0.000      0.000      0.300      0.000 
      45      0.000      0.000      0.300      0.000 
      46      0.000      0.000      0.300      0.000 
      47      0.000      0.000      0.300      0.000 
      48      0.000      0.000      0.300      0.000 
      49      0.000      0.000      0.300      0.000 
      50      0.000      0.000      0.300      0.000 
      51      0.000      0.000      0.300      0.000 
      52      0.000      0.000      0.300      0.000 
      53      0.000      0.000      0.300      0.000 
      54      0.000      0.000      0.300      0.000 
      55      0.000      0.000      0.300      0.000 
      56      0.000      0.000      0.300      0.000 
      57      0.000      0.000      0.300      0.000 
      58      0.000      0.000      0.300      0.000 
      59      0.000      0.000      0.300      0.000 
      60      0.000      0.000      0.300      0.000 
      61      0.000      0.000      0.300      0.000 
      62      0.000      0.000      0.300      0.000 
      63      0.000      0.000      0.300      0.000 
      64      0.000      0.000      0.300      0.000 
      65      0.000      0.000      0.300      0.000 
      66      0.000      0.000      0.300      0.000 
      67      0.000      0.000      0.300      0.000 
      68      0.000      0.000      0.300      0.000 
      69      0.000      0.000      0.300      0.000 
      70      0.000      0.000      0.300      0.000 
      71      0.000      0.000      0.300      0.000 
      72      0.000      0.000      0.300      0.000 
      73      0.000      0.000      0.300      0.000 
      74      0.000      0.000      0.300      0.000 
      75      0.000      0.000      0.300      0.000 
      76      0.000      0.000      0.300      0.000 
      77      0.000      0.000      0.300      0.000 
      78      0.000      0.000      0.300      0.000 
      79      0.000      0.000      0.300      0.000 
      80      0.000      0.000      0.300      0.000 
      81      0.000      0.000      0.300      0.000 
      82      0.000      0.000      0.300      0.000 
      83      0.000      0.000      0.300      0.000 
      84      0.000      0.000      0.300      0.000 
      85      0.000      0.000      0.300      0.000 
      86      0.000      0.000      0.300      0.000 
      87      0.000      0.000      0.300      0.000 
      88      0.000      0.000      0.300      0.000 
      89      0.000      0.000      0.300      0.000 
      90      0.000      0.000      0.300      0.000 
      91      0.000      0.000      0.300      0.000 
      92      0.000      0.000      0.300      0.000 
      93      0.000      0.000      0.300      0.000 
      94      0.000      0.000      0.300      0.000 
      95      0.000      0.000      0.300      0.000 
      96      0.000      0.000      0.300      0.000 
      97      0.000      0.000      0.300      0.000 
      98      0.000      0.000      0.300      0.000 
      99      0.000      0.000      0.300      0.000 
     100      0.000      0.000      0.300      0.000 
     101      0.000      0.000      0.300      0.000 
     102      0.000      0.000      0.300      0.000 
     103      0.000      0.000      0.300      0.000 
     104      0.000      0.000      0.300      0.000 
     105      0.000      0.000      0.300      0.000 
     106      0.000      0.000      0.300      0.000 
     107      0.000      0.000      0.300      0.000 
     108      0.000      0.000      0.300      0.000 
     109      0.000      0.000      0.300      0.000 
     110      0.000      0.000      0.300      0.000 
     111      0.000      0.000      0.300      0.000 
     112      0.000      0.000      0.300      0.000 
     113      0.000      0.000      0.300      0.000 
     114      0.000      0.000      0.300      0.000 
     115      0.000      0.000      0.300      0.000 
     116      0.000      0.000      0.300      0.000 
     117      0.000      0.000      0.300      0.000 
     118      0.000      0.000      0.300      0.000 
     119      0.000      0.000      0.300      0.000 
     120      0.000      0.000      0.300      0.000 
     121      0.000      0.000      0.300      0.000 
     122      0.000      0.000      0.300      0.000 
     123      0.000      0.000      0.300      0.000 
     124      0.000      0.000      0.300      0.000 
     125      0.000      0.000      0.300      0.000 
     126      0.000      0.000      0.300      0.000 
     127      0.000      0.000      0.300      0.000 
     128      0.000      0.000      0.300      0.000 
     129      0.000      0.000      0.300      0.000 
     130      0.000      0.000      0.300      0.000 
     131      0.000      0.000      0.300      0.000 
     132      0.000      0.000      0.300      0.000 
     133      0.000      0.000      0.300      0.000 
     134      0.000      0.000      0.300      0.000 
     135      0.000      0.000      0.300      0.000 

Improper Coeffs 

       1      0.000      -1       2 
       2      0.000      -1       2 
       3      0.000      -1       2 
       4      0.000      -1       2 
       5      0.000      -1       2 
       6      0.000      -1       2 
       7      0.000      -1       2 
       8      0.000      -1       2 
       9      0.000      -1       2 
      10      0.000      -1       2 
      11      0.000      -1       2 
      12      0.000      -1       2 
      13      0.000      -1       2 
      14      0.000      -1       2 
      15      0.000      -1       2 
      16      0.000      -1       2 
      17      0.000      -1       2 
      18      0.000      -1       2 
      19      0.000      -1       2 
      20      0.000      -1       2 
      21      0.000      -1       2 
      22      0.000      -1       2 
      23      0.000      -1       2 
      24      0.000      -1       2 
      25      0.000      -1       2 
      26      0.000      -1       2 
      27      0.000      -1       2 
      28      0.000      -1       2 
      29      0.000      -1       2 
      30      0.000      -1       2 
      31      0.000      -1       2 
      32      0.000      -1       2 

Atoms 

     1      1      1 -0.23880000    1.000  1.00000  0.00000
     2      1      2 -0.17940000   -0.520  1.00000  0.00000
     3      1      3 -0.17860000   -1.071  1.00000  1.42337
     4      1      4 -0.17940000   -2.599  0.99820  1.42501
     5      1      5 -0.17930000   -3.143  1.00001  2.85208
     6      1      6 -0.17910000   -4.670  0.99642  2.85699
     7      1      7 -0.17930000   -5.209  0.99644  4.28511
     8      1      8 -0.17940000   -6.735  0.99105  4.29166
     9      1      9 -0.17940000   -7.273  0.99288  5.72001
    10      1     10 -0.17940000   -8.799  0.98929  5.72655
    11      1     11 -0.17940000   -9.338  0.99292  7.15451
    12      1     12 -0.17930000  -10.864  0.98753  7.15943
    13      1     13 -0.17920000  -11.408  0.99294  8.58632
    14      1     14 -0.17860000  -12.936  0.98570  8.58634
    15      1     15 -0.17940000  -13.489  0.99285 10.00959
    16      1     16 -0.23870000  -15.009  0.98743 10.00797
    17      1     17 0.08070000    1.379  1.00130 -1.02633
    18      1     18 0.08070000    1.390  0.11158  0.50636
    19      1     19 0.08070000    1.390  1.88724  0.50866
    20      1     20 0.08840000   -0.881  0.11642 -0.53971
    21      1     21 0.08840000   -0.881  1.88334 -0.53957
    22      1     22 0.08940000   -0.705  1.88366  1.96080
    23      1     23 0.08940000   -0.703  0.11747  1.96059
    24      1     24 0.08940000   -2.967  0.11351  0.89161
    25      1     25 0.08940000   -2.970  1.88019  0.88856
    26      1     26 0.08950000   -2.775  1.88523  3.38499
    27      1     27 0.08950000   -2.771  0.11894  3.38878
    28      1     28 0.08960000   -5.038  0.11169  2.32364
    29      1     29 0.08960000   -5.042  1.87846  2.32203
    30      1     30 0.08960000   -4.842  1.88185  4.81808
    31      1     31 0.08960000   -4.835  0.11503  4.82052
    32      1     32 0.08970000   -7.103  0.10495  3.76021
    33      1     33 0.08970000   -7.109  1.87175  3.75557
    34      1     34 0.08970000   -6.903  1.87877  6.25099
    35      1     35 0.08970000   -6.898  0.11208  6.25611
    36      1     36 0.08960000   -9.167  0.10279  5.19558
    37      1     37 0.08960000   -9.172  1.86940  5.18869
    38      1     38 0.08960000   -8.970  1.88006  7.68432
    39      1     39 0.08960000   -8.963  0.11318  7.69155
    40      1     40 0.08950000  -11.230  0.09993  6.62831
    41      1     41 0.08950000  -11.236  1.86690  6.61927
    42      1     42 0.08940000  -11.042  1.88078  9.11615
    43      1     43 0.08940000  -11.034  0.11453  9.12607
    44      1     44 0.08940000  -13.298  0.09739  8.05452
    45      1     45 0.08940000  -13.307  1.86315  8.04242
    46      1     46 0.08840000  -13.131  1.88072 10.54345
    47      1     47 0.08840000  -13.124  0.11446 10.55476
    48      1     48 0.08080000  -15.401  1.87024  9.49308
    49      1     49 0.08080000  -15.389  0.99277 11.03416
    50      1     50 0.08080000  -15.395  0.09537  9.50450

Bonds 

     1      1      2      1
     2      2      3      2
     3      3      4      3
     4      4      5      4
     5      5      6      5
     6      6      7      6
     7      7      8      7
     8      8      9      8
     9      9     10      9
    10     10     11     10
    11     11     12     11
    12     12     13     12
    13     13     14     13
    14     14     15     14
    15     15     16     15
    16     16     17      1
    17     17     18      1
    18     18     19      1
    19     19     20      2
    20     20     21      2
    21     21     22      3
    22     22     23      3
    23     23     24      4
    24     24     25      4
    25     25     26      5
    26     26     27      5
    27     27     28      6
    28     28     29      6
    29     29     30      7
    30     30     31      7
    31     31     32      8
    32     32     33      8
    33     33     34      9
    34     34     35      9
    35     35     36     10
    36     36     37     10
    37     37     38     11
    38     38     39     11
    39     39     40     12
    40     40     41     12
    41     41     42     13
    42     42     43     13
    43     43     44     14
    44     44     45     14
    45     45     46     15
    46     46     47     15
    47     47     48     16
    48     48     49     16
    49     49     50     16

Angles 

     1      1      1      2      3
     2      2      2      3      4
     3      3      3      4      5
     4      4      4      5      6
     5      5      5      6      7
     6      6      6      7      8
     7      7      7      8      9
     8      8      8      9     10
     9      9      9     10     11
    10     10     10     11     12
    11     11     11     12     13
    12     12     12     13     14
    13     13     13     14     15
    14     14     14     15     16
    15     15      2      1     17
    16     16      2      1     18
    17     17      2      1     19
    18     18      1      2     20
    19     19      1      2     21
    20     20      2      3     22
    21     21      2      3     23
    22     22      3      4     24
    23     23      3      4     25
    24     24      4      5     26
    25     25      4      5     27
    26     26      5      6     28
    27     27      5      6     29
    28     28      6      7     30
    29     29      6      7     31
    30     30      7      8     32
    31     31      7      8     33
    32     32      8      9     34
    33     33      8      9     35
    34     34      9     10     36
    35     35      9     10     37
    36     36     10     11     38
    37     37     10     11     39
    38     38     11     12     40
    39     39     11     12     41
    40     40     12     13     42
    41     41     12     13     43
    42     42     13     14     44
    43     43     13     14     45
    44     44     14     15     46
    45     45     14     15     47
    46     46     15     16     48
    47     47     15     16     49
    48     48     15     16     50
    49     49     42     13     43
    50     50     40     12     41
    51     51     22      3     23
    52     52      4      3     23
    53     53     11     10     36
    54     54      6      5     26
    55     55     38     11     39
    56     56     12     11     38
    57     57     16     15     46
    58     58      8      7     30
    59     59     44     14     45
    60     60     24      4     25
    61     61      5      4     24
    62     62     48     16     49
    63     63      4      3     22
    64     64     14     13     42
    65     65     18      1     19
    66     66     12     11     39
    67     67      5      4     25
    68     68      8      7     31
    69     69     20      2     21
    70     70     46     15     47
    71     71     14     13     43
    72     72      3      2     20
    73     73     48     16     50
    74     74     28      6     29
    75     75      7      6     28
    76     76     16     15     47
    77     77      6      5     27
    78     78      7      6     29
    79     79     15     14     44
    80     80     17      1     19
    81     81     32      8     33
    82     82     15     14     45
    83     83     13     12     40
    84     84      9      8     32
    85     85     49     16     50
    86     86     34      9     35
    87     87      9      8     33
    88     88      3      2     21
    89     89     10      9     35
    90     90     10      9     34
    91     91     26      5     27
    92     92     11     10     37
    93     93     30      7     31
    94     94     17      1     18
    95     95     13     12     41
    96     96     36     10     37

Dihedrals

     1      1      4      3      2      1 
     2      2      5      4      3      2 
     3      3      6      5      4      3 
     4      4      7      6      5      4 
     5      5      8      7      6      5 
     6      6      9      8      7      6 
     7      7     10      9      8      7 
     8      8     11     10      9      8 
     9      9     12     11     10      9 
    10     10     13     12     11     10 
    11     11     14     13     12     11 
    12     12     15     14     13     12 
    13     13     16     15     14     13 
    14     14     17      1      2      3 
    15     15     48     16     15     14 
    16     16     31      7      6      5 
    17     17     31      7      8      9 
    18     18     28      6      7      8 
    19     19     35      9     10     11 
    20     20     25      4      3     22 
    21     21     43     13     12     41 
    22     22     47     15     14     13 
    23     23     44     14     15     16 
    24     24     36     10      9     34 
    25     25     47     15     14     44 
    26     26     46     15     14     45 
    27     27     38     11     10      9 
    28     28     21      2      1     17 
    29     29     20      2      1     18 
    30     30     24      4      3     23 
    31     31     19      1      2      3 
    32     32     38     11     10     36 
    33     33     23      3      2     20 
    34     34     22      3      2     21 
    35     35     33      8      7      6 
    36     36     28      6      5      4 
    37     37     47     15     14     45 
    38     38     30      7      6      5 
    39     39     25      4      5      6 
    40     40     23      3      4      5 
    41     41     39     11     10     36 
    42     42     38     11     10     37 
    43     43     34      9      8     32 
    44     44     32      8      7     30 
    45     45     41     12     11     39 
    46     46     32      8      7     31 
    47     47     33      8      7     30 
    48     48     48     16     15     46 
    49     49     29      6      5     27 
    50     50     46     15     14     13 
    51     51     49     16     15     14 
    52     52     44     14     13     12 
    53     53     49     16     15     46 
    54     54     48     16     15     47 
    55     55     26      5      4     24 
    56     56     30      7      6     29 
    57     57     31      7      6     28 
    58     58     34      9     10     11 
    59     59     34      9      8     33 
    60     60     35      9      8     32 
    61     61     45     14     13     43 
    62     62     21      2      1     18 
    63     63     40     12     11     10 
    64     64     20      2      1     19 
    65     65     43     13     12     11 
    66     66     37     10      9     35 
    67     67     32      8      9     10 
    68     68     24      4      3     22 
    69     69     35      9      8      7 
    70     70     35      9      8     33 
    71     71     26      5      4      3 
    72     72     41     12     11     38 
    73     73     38     11     12     13 
    74     74     41     12     11     10 
    75     75     39     11     10      9 
    76     76     27      5      6      7 
    77     77     36     10     11     12 
    78     78     37     10      9      8 
    79     79     30      7      8      9 
    80     80     37     10      9     34 
    81     81     36     10      9     35 
    82     82     32      8      7      6 
    83     83     42     13     12     11 
    84     84     50     16     15     46 
    85     85     49     16     15     47 
    86     86     45     14     15     16 
    87     87     27      5      4     25 
    88     88     33      8      7     31 
    89     89     39     11     12     13 
    90     90     22      3      2     20 
    91     91     42     13     12     41 
    92     92     29      6      7      8 
    93     93     34      9      8      7 
    94     94     24      4      3      2 
    95     95     36     10      9      8 
    96     96     24      4      5      6 
    97     97     20      2      1     17 
    98     98     25      4      3     23 
    99     99     43     13     12     40 
   100    100     50     16     15     14 
   101    101     44     14     13     42 
   102    102     23      3      2      1 
   103    103     20      2      3      4 
   104    104     31      7      6     29 
   105    105     40     12     11     39 
   106    106     40     12     13     14 
   107    107     23      3      2     21 
   108    108     21      2      3      4 
   109    109     28      6      5     26 
   110    110     26      5      6      7 
   111    111     29      6      5      4 
   112    112     22      3      2      1 
   113    113     39     11     10     37 
   114    114     27      5      4      3 
   115    115     18      1      2      3 
   116    116     45     14     13     12 
   117    117     37     10     11     12 
   118    118     21      2      1     19 
   119    119     29      6      5     26 
   120    120     28      6      5     27 
   121    121     42     13     14     15 
   122    122     25      4      3      2 
   123    123     22      3      4      5 
   124    124     41     12     13     14 
   125    125     46     15     14     44 
   126    126     50     16     15     47 
   127    127     40     12     11     38 
   128    128     33      8      9     10 
   129    129     45     14     13     42 
   130    130     26      5      4     25 
   131    131     27      5      4     24 
   132    132     43     13     14     15 
   133    133     44     14     13     43 
   134    134     42     13     12     40 
   135    135     30      7      6     28 

Impropers

     1      1      1     18     17      2 
     2      2      1      2     19     17 
     3      3      2      1      3     20 
     4      4      2      1      3     21 
     5      5      3      2      4     22 
     6      6      3      2      4     23 